                         Program Version 5.0.4 -  RELEASE  -
|  1> ! HF def2-SVP TightSCF CPCM(water) OPT Freq
|  2> %geom
|  3>    MaxIter 200
|  4> end* xyzfile -1 1 molecule.xyz
|  5>
|  6>                          ****END OF INPUT****
 Total Charge           Charge          ....   -1
 Multiplicity           Mult            ....    1
 Number of Electrons    NEL             ....   32
FINAL SINGLE POINT ENERGY      -227.136916107458
FINAL SINGLE POINT ENERGY      -227.161332130604
FINAL SINGLE POINT ENERGY      -227.163817938664
FINAL SINGLE POINT ENERGY      -227.163838169499
FINAL SINGLE POINT ENERGY      -227.163324342150
FINAL SINGLE POINT ENERGY      -227.164475742436
FINAL SINGLE POINT ENERGY      -227.164485138922
FINAL SINGLE POINT ENERGY      -227.164486038717
                    ***********************HURRAY********************

CARTESIAN COORDINATES (ANGSTROEM)
---------------------------------
  O      1.282869   -0.725152    0.205803
  O      0.833131    1.428628    0.053888
  C     -0.978916   -0.069008   -0.059679
  C      0.514904    0.234079    0.085624
  H     -1.200729   -1.120973    0.117682
  H     -1.299360    0.193335   -1.071442
  H     -1.556209    0.549381    0.630274

 Multiplicity           Mult            ....    1
 Number of Electrons    NEL             ....   32
 Basis Dimension        Dim             ....   71

ORBITAL ENERGIES
----------------

  NO   OCC          E(Eh)            E(eV)
   0   2.0000     -20.449685      -556.4642
   1   2.0000     -20.447068      -556.3930
   2   2.0000     -11.300305      -307.4969
   3   2.0000     -11.198057      -304.7146
   4   2.0000      -1.336544       -36.3692
   5   2.0000      -1.226616       -33.3779
   6   2.0000      -0.942404       -25.6441
   7   2.0000      -0.673408       -18.3244
   8   2.0000      -0.597972       -16.2717
   9   2.0000      -0.589785       -16.0489
  10   2.0000      -0.579137       -15.7591
  11   2.0000      -0.524997       -14.2859
  12   2.0000      -0.492100       -13.3907
  13   2.0000      -0.378989       -10.3128
  14   2.0000      -0.373017       -10.1503
  15   2.0000      -0.370434       -10.0800
  16   0.0000       0.210194         5.7197
  17   0.0000       0.247687         6.7399
  18   0.0000       0.280161         7.6236
  19   0.0000       0.319717         8.7000
  20   0.0000       0.418667        11.3925

MULLIKEN ATOMIC CHARGES
-----------------------
   0 O :   -0.648201
   1 O :   -0.660063
   2 C :   -0.093701
   3 C :    0.321434
   4 H :    0.014387
   5 H :    0.037073
   6 H :    0.029071
Sum of atomic charges:   -1.0000000

LOEWDIN ATOMIC CHARGES
----------------------
   0 O :   -0.504060
   1 O :   -0.513479
   2 C :   -0.094401
   3 C :    0.060098
   4 H :    0.007995
   5 H :    0.024821
   6 H :    0.019026

  Mayer bond orders larger than 0.100000
B(  0-O ,  3-C ) :   1.7268 B(  1-O ,  3-C ) :   1.7010 B(  2-C ,  3-C ) :   0.9731
B(  2-C ,  4-H ) :   0.9824 B(  2-C ,  5-H ) :   0.9769 B(  2-C ,  6-H ) :   0.9796

FINAL SINGLE POINT ENERGY      -227.164487144829

DIPOLE MOMENT
-------------
                                X             Y             Z
Electronic contribution:      3.15146       0.60566       0.31606
Nuclear contribution   :     -4.93954      -0.96375      -0.49908
                        -----------------------------------------
Total Dipole Moment    :     -1.78808      -0.35808      -0.18303
                        -----------------------------------------
Magnitude (a.u.)       :      1.83274
Magnitude (Debye)      :      4.65846

VIBRATIONAL FREQUENCIES
-----------------------

Scaling factor for frequencies =  1.000000000  (already applied!)

   0:         0.00 cm**-1
   1:         0.00 cm**-1
   2:         0.00 cm**-1
   3:         0.00 cm**-1
   4:         0.00 cm**-1
   5:         0.00 cm**-1
   6:       -29.56 cm**-1 ***imaginary mode***
   7:       487.88 cm**-1
   8:       671.24 cm**-1
   9:       704.14 cm**-1
  10:       994.60 cm**-1
  11:      1097.70 cm**-1
  12:      1141.82 cm**-1
  13:      1455.66 cm**-1
  14:      1544.01 cm**-1
  15:      1563.84 cm**-1
  16:      1586.36 cm**-1
  17:      1824.83 cm**-1
  18:      3171.38 cm**-1
  19:      3248.54 cm**-1
  20:      3275.00 cm**-1

IR SPECTRUM
-----------

 Mode   freq       eps      Int      T**2         TX        TY        TZ
       cm**-1   L/(mol*cm) km/mol    a.u.
----------------------------------------------------------------------------
  7:    487.88   0.000166    0.84  0.000106  (-0.003237 -0.009780 -0.000080)
  8:    671.24   0.005221   26.39  0.002427  ( 0.010958  0.005067  0.047767)
  9:    704.14   0.009697   49.00  0.004298  (-0.064382 -0.009822  0.007483)
 10:    994.60   0.009625   48.64  0.003020  ( 0.052495  0.014978  0.006303)
 11:   1097.70   0.004511   22.80  0.001283  ( 0.010231 -0.034260  0.002033)
 12:   1141.82   0.004511   22.79  0.001233  ( 0.000997 -0.001248 -0.035074)
 13:   1455.66   0.001867    9.44  0.000400  ( 0.016442  0.011376 -0.000743)
 14:   1544.01   0.013523   68.34  0.002733  (-0.045079  0.025814 -0.005883)
 15:   1563.84   0.005878   29.70  0.001173  (-0.028391 -0.009586 -0.016583)
 16:   1586.36   0.095190  481.05  0.018725  (-0.130821 -0.039029 -0.009385)
 17:   1824.83   0.211071  1066.67  0.036095  (-0.042419  0.184706 -0.013397)
 18:   3171.38   0.002854   14.42  0.000281  ( 0.016248  0.001267  0.003907)
 19:   3248.54   0.008497   42.94  0.000816  ( 0.006514  0.000337 -0.027815)
 20:   3275.00   0.012250   61.91  0.001167  ( 0.001696 -0.034110  0.000945)

--------------------------
THERMOCHEMISTRY AT 298.15K
--------------------------

Temperature         ... 298.15 K
Pressure            ... 1.00 atm
Total Mass          ... 59.04 AMU

Throughout the following assumptions are being made:
  (1) The electronic state is orbitally nondegenerate
  (2) There are no thermally accessible electronically excited states
  (3) Hindered rotations indicated by low frequency modes are not
      treated as such but are treated as vibrations and this may
      cause some error
  (4) All equations used are the standard statistical mechanics
      equations for an ideal gas
  (5) All vibrations are strictly harmonic

freq.     487.88  E(vib)   ...       0.15
freq.     671.24  E(vib)   ...       0.08
freq.     704.14  E(vib)   ...       0.07
freq.     994.60  E(vib)   ...       0.02
freq.    1097.70  E(vib)   ...       0.02
freq.    1141.82  E(vib)   ...       0.01
freq.    1455.66  E(vib)   ...       0.00
freq.    1544.01  E(vib)   ...       0.00
freq.    1563.84  E(vib)   ...       0.00
freq.    1586.36  E(vib)   ...       0.00
freq.    1824.83  E(vib)   ...       0.00
freq.    3171.38  E(vib)   ...       0.00
freq.    3248.54  E(vib)   ...       0.00
freq.    3275.00  E(vib)   ...       0.00

------------
INNER ENERGY
------------

The inner energy is: U= E(el) + E(ZPE) + E(vib) + E(rot) + E(trans)
    E(el)   - is the total energy from the electronic structure calculation
              = E(kin-el) + E(nuc-el) + E(el-el) + E(nuc-nuc)
    E(ZPE)  - the the zero temperature vibrational energy from the frequency calculation
    E(vib)  - the the finite temperature correction to E(ZPE) due to population
              of excited vibrational states
    E(rot)  - is the rotational thermal energy
    E(trans)- is the translational thermal energy

Summary of contributions to the inner energy U:
Electronic energy                ...   -227.16448714 Eh
Zero point energy                ...      0.05186708 Eh      32.55 kcal/mol
Thermal vibrational correction   ...      0.00057139 Eh       0.36 kcal/mol
Thermal rotational correction    ...      0.00141627 Eh       0.89 kcal/mol
Thermal translational correction ...      0.00141627 Eh       0.89 kcal/mol
-----------------------------------------------------------------------
Total thermal energy                   -227.10921613 Eh

Summary of corrections to the electronic energy:
(perhaps to be used in another calculation)
Total thermal correction                  0.00340394 Eh       2.14 kcal/mol
Non-thermal (ZPE) correction              0.05186708 Eh      32.55 kcal/mol
-----------------------------------------------------------------------
Total correction                          0.05527102 Eh      34.68 kcal/mol

--------
ENTHALPY
--------

The enthalpy is H = U + kB*T
                kB is Boltzmann's constant
Total free energy                 ...   -227.10921613 Eh
Thermal Enthalpy correction       ...      0.00094421 Eh       0.59 kcal/mol
-----------------------------------------------------------------------
Total Enthalpy                    ...   -227.10827192 Eh

Note: Only C1 symmetry has been detected, increase convergence thresholds
      if your molecule has a higher symmetry. Symmetry factor of 1.0 is
      used for the rotational entropy correction.

Note: Rotational entropy computed according to Herzberg
Infrared and Raman Spectra, Chapter V,1, Van Nostrand Reinhold, 1945
Point Group:  C1, Symmetry Number:   1
Rotational constants in cm-1:     0.400866     0.336858     0.189442

Vibrational entropy computed according to the QRRHO of S. Grimme
Chem.Eur.J. 2012 18 9955

-------
ENTROPY
-------

The entropy contributions are T*S = T*(S(el)+S(vib)+S(rot)+S(trans))
     S(el)   - electronic entropy
     S(vib)  - vibrational entropy
     S(rot)  - rotational entropy
     S(trans)- translational entropy
The entropies will be listed as multiplied by the temperature to get
units of energy

Electronic entropy                ...      0.00000000 Eh      0.00 kcal/mol
Vibrational entropy               ...      0.00075512 Eh      0.47 kcal/mol
Rotational entropy                ...      0.01124144 Eh      7.05 kcal/mol
Translational entropy             ...      0.01812503 Eh     11.37 kcal/mol
-----------------------------------------------------------------------
Final entropy term                ...      0.03012159 Eh     18.90 kcal/mol

In case the symmetry of your molecule has not been determined correctly
or in case you have a reason to use a different symmetry number we print
out the resulting rotational entropy values for sn=1,12 :
 --------------------------------------------------------
|  sn= 1 | S(rot)=       0.01124144 Eh      7.05 kcal/mol|
|  sn= 2 | S(rot)=       0.01058699 Eh      6.64 kcal/mol|
|  sn= 3 | S(rot)=       0.01020415 Eh      6.40 kcal/mol|
|  sn= 4 | S(rot)=       0.00993253 Eh      6.23 kcal/mol|
|  sn= 5 | S(rot)=       0.00972184 Eh      6.10 kcal/mol|
|  sn= 6 | S(rot)=       0.00954970 Eh      5.99 kcal/mol|
|  sn= 7 | S(rot)=       0.00940415 Eh      5.90 kcal/mol|
|  sn= 8 | S(rot)=       0.00927807 Eh      5.82 kcal/mol|
|  sn= 9 | S(rot)=       0.00916687 Eh      5.75 kcal/mol|
|  sn=10 | S(rot)=       0.00906739 Eh      5.69 kcal/mol|
|  sn=11 | S(rot)=       0.00897740 Eh      5.63 kcal/mol|
|  sn=12 | S(rot)=       0.00889524 Eh      5.58 kcal/mol|
 --------------------------------------------------------

-------------------
GIBBS FREE ENERGY
-------------------

The Gibbs free energy is G = H - T*S

Total enthalpy                    ...   -227.10827192 Eh
Total entropy correction          ...     -0.03012159 Eh    -18.90 kcal/mol
-----------------------------------------------------------------------
Final Gibbs free energy         ...   -227.13839351 Eh

For completeness - the Gibbs free energy minus the electronic energy
G-E(el)                           ...      0.02609364 Eh     16.37 kcal/mol

                             ****ORCA TERMINATED NORMALLY****
TOTAL RUN TIME: 0 days 0 hours 0 minutes 50 seconds 821 msec
