                         Program Version 5.0.4 -  RELEASE  -
|  1> ! HF def2-SVP TightSCF CPCM(water) OPT Freq
|  2> %geom
|  3>    MaxIter 200
|  4> end* xyzfile 0 1 molecule.xyz
|  5>
|  6>                          ****END OF INPUT****
 Total Charge           Charge          ....    0
 Multiplicity           Mult            ....    1
 Number of Electrons    NEL             ....   24
FINAL SINGLE POINT ENERGY      -188.596419071265
FINAL SINGLE POINT ENERGY      -188.623357129718
FINAL SINGLE POINT ENERGY      -188.626478088888
FINAL SINGLE POINT ENERGY      -188.629558250873
FINAL SINGLE POINT ENERGY      -188.632762319410
FINAL SINGLE POINT ENERGY      -188.633244833974
FINAL SINGLE POINT ENERGY      -188.633321170471
FINAL SINGLE POINT ENERGY      -188.633327754541
                    ***********************HURRAY********************

CARTESIAN COORDINATES (ANGSTROEM)
---------------------------------
  O      0.730109   -0.544904    0.129011
  O     -0.526105    1.099282   -0.651265
  C     -0.411629    0.033131   -0.147877
  H      1.461147    0.010975   -0.131960
  H     -1.253523   -0.598484    0.146441

 Multiplicity           Mult            ....    1
 Number of Electrons    NEL             ....   24
 Basis Dimension        Dim             ....   52

ORBITAL ENERGIES
----------------

  NO   OCC          E(Eh)            E(eV)
   0   2.0000     -20.607458      -560.7574
   1   2.0000     -20.550655      -559.2117
   2   2.0000     -11.389021      -309.9110
   3   2.0000      -1.467730       -39.9390
   4   2.0000      -1.361994       -37.0617
   5   2.0000      -0.889009       -24.1912
   6   2.0000      -0.729887       -19.8612
   7   2.0000      -0.708219       -19.2716
   8   2.0000      -0.640624       -17.4323
   9   2.0000      -0.592717       -16.1286
  10   2.0000      -0.493915       -13.4401
  11   2.0000      -0.469355       -12.7718
  12   0.0000       0.187124         5.0919
  13   0.0000       0.211803         5.7634
  14   0.0000       0.242630         6.6023
  15   0.0000       0.379761        10.3338
  16   0.0000       0.436208        11.8698

MULLIKEN ATOMIC CHARGES
-----------------------
   0 O :   -0.332295
   1 O :   -0.451576
   2 C :    0.471540
   3 H :    0.239357
   4 H :    0.072974
Sum of atomic charges:    0.0000000

LOEWDIN ATOMIC CHARGES
----------------------
   0 O :   -0.076041
   1 O :   -0.293071
   2 C :    0.235814
   3 H :    0.116179
   4 H :    0.017119

  Mayer bond orders larger than 0.100000
B(  0-O ,  2-C ) :   1.1566 B(  0-O ,  3-H ) :   0.9352 B(  1-O ,  2-C ) :   1.9441
B(  2-C ,  4-H ) :   0.9687

FINAL SINGLE POINT ENERGY      -188.633328115018

DIPOLE MOMENT
-------------
                                X             Y             Z
Electronic contribution:      0.14091       0.22554      -0.10540
Nuclear contribution   :      0.25872      -0.90224       0.42482
                        -----------------------------------------
Total Dipole Moment    :      0.39962      -0.67669       0.31942
                        -----------------------------------------
Magnitude (a.u.)       :      0.84832
Magnitude (Debye)      :      2.15625

VIBRATIONAL FREQUENCIES
-----------------------

Scaling factor for frequencies =  1.000000000  (already applied!)

   0:         0.00 cm**-1
   1:         0.00 cm**-1
   2:         0.00 cm**-1
   3:         0.00 cm**-1
   4:         0.00 cm**-1
   5:         0.00 cm**-1
   6:       680.34 cm**-1
   7:       698.46 cm**-1
   8:      1203.54 cm**-1
   9:      1275.03 cm**-1
  10:      1419.16 cm**-1
  11:      1547.80 cm**-1
  12:      1980.75 cm**-1
  13:      3294.24 cm**-1
  14:      4046.01 cm**-1

IR SPECTRUM
-----------

 Mode   freq       eps      Int      T**2         TX        TY        TZ
       cm**-1   L/(mol*cm) km/mol    a.u.
----------------------------------------------------------------------------
  6:    680.34   0.052482  265.22  0.024072  (-0.010582 -0.065631 -0.140189)
  7:    698.46   0.021079  106.52  0.009418  ( 0.095630 -0.008520 -0.014148)
  8:   1203.54   0.000446    2.25  0.000116  ( 0.000377 -0.004321 -0.009842)
  9:   1275.03   0.080334  405.97  0.019662  ( 0.121289 -0.063718  0.029844)
 10:   1419.16   0.010732   54.24  0.002360  ( 0.048575  0.000614  0.000231)
 11:   1547.80   0.004990   25.22  0.001006  ( 0.026127  0.016325 -0.007546)
 12:   1980.75   0.143823  726.82  0.022659  ( 0.056157 -0.126223  0.059776)
 13:   3294.24   0.008849   44.72  0.000838  ( 0.020205  0.018753 -0.008850)
 14:   4046.01   0.047949  242.32  0.003698  (-0.054634 -0.024226  0.011246)

--------------------------
THERMOCHEMISTRY AT 298.15K
--------------------------

Temperature         ... 298.15 K
Pressure            ... 1.00 atm
Total Mass          ... 46.02 AMU

Throughout the following assumptions are being made:
  (1) The electronic state is orbitally nondegenerate
  (2) There are no thermally accessible electronically excited states
  (3) Hindered rotations indicated by low frequency modes are not
      treated as such but are treated as vibrations and this may
      cause some error
  (4) All equations used are the standard statistical mechanics
      equations for an ideal gas
  (5) All vibrations are strictly harmonic

freq.     680.34  E(vib)   ...       0.08
freq.     698.46  E(vib)   ...       0.07
freq.    1203.54  E(vib)   ...       0.01
freq.    1275.03  E(vib)   ...       0.01
freq.    1419.16  E(vib)   ...       0.00
freq.    1547.80  E(vib)   ...       0.00
freq.    1980.75  E(vib)   ...       0.00
freq.    3294.24  E(vib)   ...       0.00
freq.    4046.01  E(vib)   ...       0.00

------------
INNER ENERGY
------------

The inner energy is: U= E(el) + E(ZPE) + E(vib) + E(rot) + E(trans)
    E(el)   - is the total energy from the electronic structure calculation
              = E(kin-el) + E(nuc-el) + E(el-el) + E(nuc-nuc)
    E(ZPE)  - the the zero temperature vibrational energy from the frequency calculation
    E(vib)  - the the finite temperature correction to E(ZPE) due to population
              of excited vibrational states
    E(rot)  - is the rotational thermal energy
    E(trans)- is the translational thermal energy

Summary of contributions to the inner energy U:
Electronic energy                ...   -188.63332812 Eh
Zero point energy                ...      0.03678177 Eh      23.08 kcal/mol
Thermal vibrational correction   ...      0.00027455 Eh       0.17 kcal/mol
Thermal rotational correction    ...      0.00141627 Eh       0.89 kcal/mol
Thermal translational correction ...      0.00141627 Eh       0.89 kcal/mol
-----------------------------------------------------------------------
Total thermal energy                   -188.59343925 Eh

Summary of corrections to the electronic energy:
(perhaps to be used in another calculation)
Total thermal correction                  0.00310710 Eh       1.95 kcal/mol
Non-thermal (ZPE) correction              0.03678177 Eh      23.08 kcal/mol
-----------------------------------------------------------------------
Total correction                          0.03988886 Eh      25.03 kcal/mol

--------
ENTHALPY
--------

The enthalpy is H = U + kB*T
                kB is Boltzmann's constant
Total free energy                 ...   -188.59343925 Eh
Thermal Enthalpy correction       ...      0.00094421 Eh       0.59 kcal/mol
-----------------------------------------------------------------------
Total Enthalpy                    ...   -188.59249504 Eh

Note: Only C1 symmetry has been detected, increase convergence thresholds
      if your molecule has a higher symmetry. Symmetry factor of 1.0 is
      used for the rotational entropy correction.

Note: Rotational entropy computed according to Herzberg
Infrared and Raman Spectra, Chapter V,1, Van Nostrand Reinhold, 1945
Point Group:  C1, Symmetry Number:   1
Rotational constants in cm-1:     2.653348     0.418505     0.361488

Vibrational entropy computed according to the QRRHO of S. Grimme
Chem.Eur.J. 2012 18 9955

-------
ENTROPY
-------

The entropy contributions are T*S = T*(S(el)+S(vib)+S(rot)+S(trans))
     S(el)   - electronic entropy
     S(vib)  - vibrational entropy
     S(rot)  - rotational entropy
     S(trans)- translational entropy
The entropies will be listed as multiplied by the temperature to get
units of energy

Electronic entropy                ...      0.00000000 Eh      0.00 kcal/mol
Vibrational entropy               ...      0.00035041 Eh      0.22 kcal/mol
Rotational entropy                ...      0.00994172 Eh      6.24 kcal/mol
Translational entropy             ...      0.01777224 Eh     11.15 kcal/mol
-----------------------------------------------------------------------
Final entropy term                ...      0.02806437 Eh     17.61 kcal/mol

In case the symmetry of your molecule has not been determined correctly
or in case you have a reason to use a different symmetry number we print
out the resulting rotational entropy values for sn=1,12 :
 --------------------------------------------------------
|  sn= 1 | S(rot)=       0.00994172 Eh      6.24 kcal/mol|
|  sn= 2 | S(rot)=       0.00928726 Eh      5.83 kcal/mol|
|  sn= 3 | S(rot)=       0.00890443 Eh      5.59 kcal/mol|
|  sn= 4 | S(rot)=       0.00863281 Eh      5.42 kcal/mol|
|  sn= 5 | S(rot)=       0.00842212 Eh      5.28 kcal/mol|
|  sn= 6 | S(rot)=       0.00824997 Eh      5.18 kcal/mol|
|  sn= 7 | S(rot)=       0.00810443 Eh      5.09 kcal/mol|
|  sn= 8 | S(rot)=       0.00797835 Eh      5.01 kcal/mol|
|  sn= 9 | S(rot)=       0.00786714 Eh      4.94 kcal/mol|
|  sn=10 | S(rot)=       0.00776766 Eh      4.87 kcal/mol|
|  sn=11 | S(rot)=       0.00767767 Eh      4.82 kcal/mol|
|  sn=12 | S(rot)=       0.00759552 Eh      4.77 kcal/mol|
 --------------------------------------------------------

-------------------
GIBBS FREE ENERGY
-------------------

The Gibbs free energy is G = H - T*S

Total enthalpy                    ...   -188.59249504 Eh
Total entropy correction          ...     -0.02806437 Eh    -17.61 kcal/mol
-----------------------------------------------------------------------
Final Gibbs free energy         ...   -188.62055941 Eh

For completeness - the Gibbs free energy minus the electronic energy
G-E(el)                           ...      0.01276871 Eh      8.01 kcal/mol

                             ****ORCA TERMINATED NORMALLY****
TOTAL RUN TIME: 0 days 0 hours 0 minutes 28 seconds 624 msec
