                         Program Version 5.0.4 -  RELEASE  -
|  1> ! HF def2-SVP TightSCF CPCM(water) OPT Freq
|  2> %geom
|  3>    MaxIter 200
|  4> end* xyzfile -1 1 molecule.xyz
|  5>
|  6>                          ****END OF INPUT****
 Total Charge           Charge          ....   -1
 Multiplicity           Mult            ....    1
 Number of Electrons    NEL             ....   24
FINAL SINGLE POINT ENERGY      -188.114424581911
FINAL SINGLE POINT ENERGY      -188.146256460040
FINAL SINGLE POINT ENERGY      -188.149184673835
FINAL SINGLE POINT ENERGY      -188.150046138598
FINAL SINGLE POINT ENERGY      -188.150065636216
                    ***********************HURRAY********************

CARTESIAN COORDINATES (ANGSTROEM)
---------------------------------
  O      0.687514   -0.391335    0.318860
  O     -0.623103    1.136407   -0.610394
  C     -0.385134    0.047403   -0.091800
  H     -1.264186   -0.638035    0.022914

 Multiplicity           Mult            ....    1
 Number of Electrons    NEL             ....   24
 Basis Dimension        Dim             ....   47

ORBITAL ENERGIES
----------------

  NO   OCC          E(Eh)            E(eV)
   0   2.0000     -20.456453      -556.6484
   1   2.0000     -20.456326      -556.6449
   2   2.0000     -11.304226      -307.6036
   3   2.0000      -1.339768       -36.4569
   4   2.0000      -1.235640       -33.6235
   5   2.0000      -0.729153       -19.8413
   6   2.0000      -0.621529       -16.9127
   7   2.0000      -0.580017       -15.7831
   8   2.0000      -0.540578       -14.7099
   9   2.0000      -0.394580       -10.7371
  10   2.0000      -0.375219       -10.2102
  11   2.0000      -0.374993       -10.2041
  12   0.0000       0.260616         7.0917
  13   0.0000       0.268168         7.2972
  14   0.0000       0.412184        11.2161
  15   0.0000       0.467463        12.7203
  16   0.0000       0.712491        19.3879

MULLIKEN ATOMIC CHARGES
-----------------------
   0 O :   -0.649478
   1 O :   -0.649378
   2 C :    0.382286
   3 H :   -0.083429
Sum of atomic charges:   -1.0000000

LOEWDIN ATOMIC CHARGES
----------------------
   0 O :   -0.503500
   1 O :   -0.503449
   2 C :    0.080702
   3 H :   -0.073753

  Mayer bond orders larger than 0.100000
B(  0-O ,  2-C ) :   1.6968 B(  1-O ,  2-C ) :   1.6968 B(  2-C ,  3-H ) :   0.9616

FINAL SINGLE POINT ENERGY      -188.150065865233

DIPOLE MOMENT
-------------
                                X             Y             Z
Electronic contribution:      0.45732       0.35652      -0.05984
Nuclear contribution   :     -1.08039      -0.84224       0.14066
                        -----------------------------------------
Total Dipole Moment    :     -0.62307      -0.48572       0.08083
                        -----------------------------------------
Magnitude (a.u.)       :      0.79415
Magnitude (Debye)      :      2.01857

VIBRATIONAL FREQUENCIES
-----------------------

Scaling factor for frequencies =  1.000000000  (already applied!)

   0:         0.00 cm**-1
   1:         0.00 cm**-1
   2:         0.00 cm**-1
   3:         0.00 cm**-1
   4:         0.00 cm**-1
   5:         0.00 cm**-1
   6:       838.39 cm**-1
   7:      1220.21 cm**-1
   8:      1518.36 cm**-1
   9:      1539.47 cm**-1
  10:      1866.31 cm**-1
  11:      2918.97 cm**-1

IR SPECTRUM
-----------

 Mode   freq       eps      Int      T**2         TX        TY        TZ
       cm**-1   L/(mol*cm) km/mol    a.u.
----------------------------------------------------------------------------
  6:    838.39   0.017065   86.24  0.006352  ( 0.062399  0.048915 -0.008105)
  7:   1220.21   0.005313   26.85  0.001359  (-0.006896  0.014134  0.033340)
  8:   1518.36   0.058517  295.72  0.012027  (-0.086222 -0.066843  0.011164)
  9:   1539.47   0.017981   90.87  0.003645  ( 0.036134 -0.041304  0.025165)
 10:   1866.31   0.225486  1139.51  0.037703  ( 0.114718 -0.133836  0.081431)
 11:   2918.97   0.089646  453.03  0.009584  (-0.076806 -0.059867  0.010031)

--------------------------
THERMOCHEMISTRY AT 298.15K
--------------------------

Temperature         ... 298.15 K
Pressure            ... 1.00 atm
Total Mass          ... 45.02 AMU

Throughout the following assumptions are being made:
  (1) The electronic state is orbitally nondegenerate
  (2) There are no thermally accessible electronically excited states
  (3) Hindered rotations indicated by low frequency modes are not
      treated as such but are treated as vibrations and this may
      cause some error
  (4) All equations used are the standard statistical mechanics
      equations for an ideal gas
  (5) All vibrations are strictly harmonic

freq.     838.39  E(vib)   ...       0.04
freq.    1220.21  E(vib)   ...       0.01
freq.    1518.36  E(vib)   ...       0.00
freq.    1539.47  E(vib)   ...       0.00
freq.    1866.31  E(vib)   ...       0.00
freq.    2918.97  E(vib)   ...       0.00

------------
INNER ENERGY
------------

The inner energy is: U= E(el) + E(ZPE) + E(vib) + E(rot) + E(trans)
    E(el)   - is the total energy from the electronic structure calculation
              = E(kin-el) + E(nuc-el) + E(el-el) + E(nuc-nuc)
    E(ZPE)  - the the zero temperature vibrational energy from the frequency calculation
    E(vib)  - the the finite temperature correction to E(ZPE) due to population
              of excited vibrational states
    E(rot)  - is the rotational thermal energy
    E(trans)- is the translational thermal energy

Summary of contributions to the inner energy U:
Electronic energy                ...   -188.15006587 Eh
Zero point energy                ...      0.02255775 Eh      14.16 kcal/mol
Thermal vibrational correction   ...      0.00009326 Eh       0.06 kcal/mol
Thermal rotational correction    ...      0.00141627 Eh       0.89 kcal/mol
Thermal translational correction ...      0.00141627 Eh       0.89 kcal/mol
-----------------------------------------------------------------------
Total thermal energy                   -188.12458232 Eh

Summary of corrections to the electronic energy:
(perhaps to be used in another calculation)
Total thermal correction                  0.00292580 Eh       1.84 kcal/mol
Non-thermal (ZPE) correction              0.02255775 Eh      14.16 kcal/mol
-----------------------------------------------------------------------
Total correction                          0.02548355 Eh      15.99 kcal/mol

--------
ENTHALPY
--------

The enthalpy is H = U + kB*T
                kB is Boltzmann's constant
Total free energy                 ...   -188.12458232 Eh
Thermal Enthalpy correction       ...      0.00094421 Eh       0.59 kcal/mol
-----------------------------------------------------------------------
Total Enthalpy                    ...   -188.12363811 Eh

Note: Only C1 symmetry has been detected, increase convergence thresholds
      if your molecule has a higher symmetry. Symmetry factor of 1.0 is
      used for the rotational entropy correction.

Note: Rotational entropy computed according to Herzberg
Infrared and Raman Spectra, Chapter V,1, Van Nostrand Reinhold, 1945
Point Group:  C1, Symmetry Number:   1
Rotational constants in cm-1:     3.580408     0.428737     0.382888

Vibrational entropy computed according to the QRRHO of S. Grimme
Chem.Eur.J. 2012 18 9955

-------
ENTROPY
-------

The entropy contributions are T*S = T*(S(el)+S(vib)+S(rot)+S(trans))
     S(el)   - electronic entropy
     S(vib)  - vibrational entropy
     S(rot)  - rotational entropy
     S(trans)- translational entropy
The entropies will be listed as multiplied by the temperature to get
units of energy

Electronic entropy                ...      0.00000000 Eh      0.00 kcal/mol
Vibrational entropy               ...      0.00011390 Eh      0.07 kcal/mol
Rotational entropy                ...      0.00976170 Eh      6.13 kcal/mol
Translational entropy             ...      0.01774087 Eh     11.13 kcal/mol
-----------------------------------------------------------------------
Final entropy term                ...      0.02761648 Eh     17.33 kcal/mol

In case the symmetry of your molecule has not been determined correctly
or in case you have a reason to use a different symmetry number we print
out the resulting rotational entropy values for sn=1,12 :
 --------------------------------------------------------
|  sn= 1 | S(rot)=       0.00976170 Eh      6.13 kcal/mol|
|  sn= 2 | S(rot)=       0.00910725 Eh      5.71 kcal/mol|
|  sn= 3 | S(rot)=       0.00872441 Eh      5.47 kcal/mol|
|  sn= 4 | S(rot)=       0.00845279 Eh      5.30 kcal/mol|
|  sn= 5 | S(rot)=       0.00824210 Eh      5.17 kcal/mol|
|  sn= 6 | S(rot)=       0.00806996 Eh      5.06 kcal/mol|
|  sn= 7 | S(rot)=       0.00792441 Eh      4.97 kcal/mol|
|  sn= 8 | S(rot)=       0.00779833 Eh      4.89 kcal/mol|
|  sn= 9 | S(rot)=       0.00768712 Eh      4.82 kcal/mol|
|  sn=10 | S(rot)=       0.00758764 Eh      4.76 kcal/mol|
|  sn=11 | S(rot)=       0.00749765 Eh      4.70 kcal/mol|
|  sn=12 | S(rot)=       0.00741550 Eh      4.65 kcal/mol|
 --------------------------------------------------------

-------------------
GIBBS FREE ENERGY
-------------------

The Gibbs free energy is G = H - T*S

Total enthalpy                    ...   -188.12363811 Eh
Total entropy correction          ...     -0.02761648 Eh    -17.33 kcal/mol
-----------------------------------------------------------------------
Final Gibbs free energy         ...   -188.15125459 Eh

For completeness - the Gibbs free energy minus the electronic energy
G-E(el)                           ...     -0.00118872 Eh     -0.75 kcal/mol

                             ****ORCA TERMINATED NORMALLY****
TOTAL RUN TIME: 0 days 0 hours 0 minutes 20 seconds 223 msec
