                         Program Version 5.0.4 -  RELEASE  -
|  1> ! HF def2-SVP TightSCF CPCM(water) OPT Freq
|  2> %geom
|  3>    MaxIter 200
|  4> end* xyzfile 0 1 molecule.xyz
|  5>
|  6>                          ****END OF INPUT****
 Total Charge           Charge          ....    0
 Multiplicity           Mult            ....    1
 Number of Electrons    NEL             ....   32
FINAL SINGLE POINT ENERGY      -227.624932737576
FINAL SINGLE POINT ENERGY      -227.648521880503
FINAL SINGLE POINT ENERGY      -227.652194781832
FINAL SINGLE POINT ENERGY      -227.652695076949
FINAL SINGLE POINT ENERGY      -227.652649458112
FINAL SINGLE POINT ENERGY      -227.652769257240
FINAL SINGLE POINT ENERGY      -227.652781080039
FINAL SINGLE POINT ENERGY      -227.652817522174
FINAL SINGLE POINT ENERGY      -227.652898616998
FINAL SINGLE POINT ENERGY      -227.653006739896
FINAL SINGLE POINT ENERGY      -227.653147007015
FINAL SINGLE POINT ENERGY      -227.653263090874
FINAL SINGLE POINT ENERGY      -227.653367058786
FINAL SINGLE POINT ENERGY      -227.653464371910
FINAL SINGLE POINT ENERGY      -227.653150496032
FINAL SINGLE POINT ENERGY      -227.653497836621
FINAL SINGLE POINT ENERGY      -227.653523090982
FINAL SINGLE POINT ENERGY      -227.653527477826
FINAL SINGLE POINT ENERGY      -227.653529049856
                    ***********************HURRAY********************

CARTESIAN COORDINATES (ANGSTROEM)
---------------------------------
  O      1.293728   -0.673009   -0.259283
  O      0.892337    1.301556    0.620004
  C     -0.957928   -0.052799   -0.057200
  C      0.486080    0.287720    0.147190
  H      2.201119   -0.419596   -0.114516
  H     -1.194341   -0.963955    0.492554
  H     -1.136624   -0.244688   -1.115200
  H     -1.584362    0.764780    0.286471

 Multiplicity           Mult            ....    1
 Number of Electrons    NEL             ....   32
 Basis Dimension        Dim             ....   76

ORBITAL ENERGIES
----------------

  NO   OCC          E(Eh)            E(eV)
   0   2.0000     -20.600026      -560.5552
   1   2.0000     -20.541645      -558.9666
   2   2.0000     -11.385666      -309.8197
   3   2.0000     -11.235488      -305.7332
   4   2.0000      -1.463515       -39.8243
   5   2.0000      -1.352838       -36.8126
   6   2.0000      -1.010935       -27.5089
   7   2.0000      -0.828764       -22.5518
   8   2.0000      -0.706321       -19.2200
   9   2.0000      -0.684242       -18.6192
  10   2.0000      -0.655907       -17.8481
  11   2.0000      -0.580342       -15.7919
  12   2.0000      -0.563214       -15.3258
  13   2.0000      -0.552647       -15.0383
  14   2.0000      -0.487646       -13.2695
  15   2.0000      -0.456313       -12.4169
  16   0.0000       0.189022         5.1436
  17   0.0000       0.192617         5.2414
  18   0.0000       0.227039         6.1780
  19   0.0000       0.265501         7.2247
  20   0.0000       0.284277         7.7356

MULLIKEN ATOMIC CHARGES
-----------------------
   0 O :   -0.337731
   1 O :   -0.448565
   2 C :   -0.066529
   3 C :    0.379653
   4 H :    0.235437
   5 H :    0.084707
   6 H :    0.084686
   7 H :    0.068343
Sum of atomic charges:    0.0000000

LOEWDIN ATOMIC CHARGES
----------------------
   0 O :   -0.082017
   1 O :   -0.303691
   2 C :   -0.049862
   3 C :    0.185102
   4 H :    0.112276
   5 H :    0.050048
   6 H :    0.049959
   7 H :    0.038186

  Mayer bond orders larger than 0.100000
B(  0-O ,  3-C ) :   1.1517 B(  0-O ,  4-H ) :   0.9369 B(  1-O ,  3-C ) :   1.9642
B(  2-C ,  3-C ) :   0.9969 B(  2-C ,  5-H ) :   0.9667 B(  2-C ,  6-H ) :   0.9669
B(  2-C ,  7-H ) :   0.9821

FINAL SINGLE POINT ENERGY      -227.653529070010

DIPOLE MOMENT
-------------
                                X             Y             Z
Electronic contribution:      3.09322       0.72417       0.43513
Nuclear contribution   :     -3.31296      -1.55705      -0.82044
                        -----------------------------------------
Total Dipole Moment    :     -0.21974      -0.83288      -0.38531
                        -----------------------------------------
Magnitude (a.u.)       :      0.94363
Magnitude (Debye)      :      2.39851

VIBRATIONAL FREQUENCIES
-----------------------

Scaling factor for frequencies =  1.000000000  (already applied!)

   0:         0.00 cm**-1
   1:         0.00 cm**-1
   2:         0.00 cm**-1
   3:         0.00 cm**-1
   4:         0.00 cm**-1
   5:         0.00 cm**-1
   6:        89.18 cm**-1
   7:       465.25 cm**-1
   8:       574.14 cm**-1
   9:       645.59 cm**-1
  10:       693.87 cm**-1
  11:       949.17 cm**-1
  12:      1098.59 cm**-1
  13:      1158.14 cm**-1
  14:      1330.55 cm**-1
  15:      1449.77 cm**-1
  16:      1544.23 cm**-1
  17:      1548.67 cm**-1
  18:      1557.97 cm**-1
  19:      1984.10 cm**-1
  20:      3203.44 cm**-1
  21:      3292.55 cm**-1
  22:      3334.30 cm**-1
  23:      4067.44 cm**-1

IR SPECTRUM
-----------

 Mode   freq       eps      Int      T**2         TX        TY        TZ
       cm**-1   L/(mol*cm) km/mol    a.u.
----------------------------------------------------------------------------
  6:     89.18   0.000175    0.89  0.000613  ( 0.000986  0.009922 -0.022673)
  7:    465.25   0.001073    5.42  0.000720  (-0.003445  0.024505  0.010362)
  8:    574.14   0.016617   83.98  0.009032  (-0.000693 -0.039928  0.086239)
  9:    645.59   0.017581   88.85  0.008498  (-0.087642  0.027102  0.009082)
 10:    693.87   0.028972  146.41  0.013030  ( 0.004968  0.046764 -0.104012)
 11:    949.17   0.000747    3.77  0.000245  (-0.015631  0.000939  0.000512)
 12:   1098.59   0.012668   64.02  0.003599  ( 0.036479 -0.043746 -0.018819)
 13:   1158.14   0.005500   27.79  0.001482  (-0.001162 -0.015890  0.035043)
 14:   1330.55   0.064361  325.25  0.015095  ( 0.082794 -0.083632 -0.035297)
 15:   1449.77   0.011740   59.33  0.002527  (-0.033937  0.034313  0.014073)
 16:   1544.23   0.028638  144.72  0.005787  (-0.059162  0.044027  0.018672)
 17:   1548.67   0.015936   80.54  0.003211  (-0.056632  0.001842 -0.000844)
 18:   1557.97   0.002755   13.92  0.000552  (-0.001771  0.010992 -0.020687)
 19:   1984.10   0.143962  727.53  0.022643  ( 0.039676  0.131716  0.060986)
 20:   3203.44   0.000184    0.93  0.000018  ( 0.004130  0.000775  0.000504)
 21:   3292.55   0.000578    2.92  0.000055  (-0.000079 -0.003070  0.006734)
 22:   3334.30   0.001431    7.23  0.000134  ( 0.006741 -0.008628 -0.003751)
 23:   4067.44   0.048959  247.42  0.003756  ( 0.061054  0.003870  0.003694)

--------------------------
THERMOCHEMISTRY AT 298.15K
--------------------------

Temperature         ... 298.15 K
Pressure            ... 1.00 atm
Total Mass          ... 60.05 AMU

Throughout the following assumptions are being made:
  (1) The electronic state is orbitally nondegenerate
  (2) There are no thermally accessible electronically excited states
  (3) Hindered rotations indicated by low frequency modes are not
      treated as such but are treated as vibrations and this may
      cause some error
  (4) All equations used are the standard statistical mechanics
      equations for an ideal gas
  (5) All vibrations are strictly harmonic

freq.      89.18  E(vib)   ...       0.47
freq.     465.25  E(vib)   ...       0.16
freq.     574.14  E(vib)   ...       0.11
freq.     645.59  E(vib)   ...       0.09
freq.     693.87  E(vib)   ...       0.07
freq.     949.17  E(vib)   ...       0.03
freq.    1098.59  E(vib)   ...       0.02
freq.    1158.14  E(vib)   ...       0.01
freq.    1330.55  E(vib)   ...       0.01
freq.    1449.77  E(vib)   ...       0.00
freq.    1544.23  E(vib)   ...       0.00
freq.    1548.67  E(vib)   ...       0.00
freq.    1557.97  E(vib)   ...       0.00
freq.    1984.10  E(vib)   ...       0.00
freq.    3203.44  E(vib)   ...       0.00
freq.    3292.55  E(vib)   ...       0.00
freq.    3334.30  E(vib)   ...       0.00
freq.    4067.44  E(vib)   ...       0.00

------------
INNER ENERGY
------------

The inner energy is: U= E(el) + E(ZPE) + E(vib) + E(rot) + E(trans)
    E(el)   - is the total energy from the electronic structure calculation
              = E(kin-el) + E(nuc-el) + E(el-el) + E(nuc-nuc)
    E(ZPE)  - the the zero temperature vibrational energy from the frequency calculation
    E(vib)  - the the finite temperature correction to E(ZPE) due to population
              of excited vibrational states
    E(rot)  - is the rotational thermal energy
    E(trans)- is the translational thermal energy

Summary of contributions to the inner energy U:
Electronic energy                ...   -227.65352907 Eh
Zero point energy                ...      0.06603716 Eh      41.44 kcal/mol
Thermal vibrational correction   ...      0.00155139 Eh       0.97 kcal/mol
Thermal rotational correction    ...      0.00141627 Eh       0.89 kcal/mol
Thermal translational correction ...      0.00141627 Eh       0.89 kcal/mol
-----------------------------------------------------------------------
Total thermal energy                   -227.58310798 Eh

Summary of corrections to the electronic energy:
(perhaps to be used in another calculation)
Total thermal correction                  0.00438393 Eh       2.75 kcal/mol
Non-thermal (ZPE) correction              0.06603716 Eh      41.44 kcal/mol
-----------------------------------------------------------------------
Total correction                          0.07042109 Eh      44.19 kcal/mol

--------
ENTHALPY
--------

The enthalpy is H = U + kB*T
                kB is Boltzmann's constant
Total free energy                 ...   -227.58310798 Eh
Thermal Enthalpy correction       ...      0.00094421 Eh       0.59 kcal/mol
-----------------------------------------------------------------------
Total Enthalpy                    ...   -227.58216377 Eh

Note: Only C1 symmetry has been detected, increase convergence thresholds
      if your molecule has a higher symmetry. Symmetry factor of 1.0 is
      used for the rotational entropy correction.

Note: Rotational entropy computed according to Herzberg
Infrared and Raman Spectra, Chapter V,1, Van Nostrand Reinhold, 1945
Point Group:  C1, Symmetry Number:   1
Rotational constants in cm-1:     0.392978     0.319812     0.182288

Vibrational entropy computed according to the QRRHO of S. Grimme
Chem.Eur.J. 2012 18 9955

-------
ENTROPY
-------

The entropy contributions are T*S = T*(S(el)+S(vib)+S(rot)+S(trans))
     S(el)   - electronic entropy
     S(vib)  - vibrational entropy
     S(rot)  - rotational entropy
     S(trans)- translational entropy
The entropies will be listed as multiplied by the temperature to get
units of energy

Electronic entropy                ...      0.00000000 Eh      0.00 kcal/mol
Vibrational entropy               ...      0.00260364 Eh      1.63 kcal/mol
Rotational entropy                ...      0.01129351 Eh      7.09 kcal/mol
Translational entropy             ...      0.01814900 Eh     11.39 kcal/mol
-----------------------------------------------------------------------
Final entropy term                ...      0.03204615 Eh     20.11 kcal/mol

In case the symmetry of your molecule has not been determined correctly
or in case you have a reason to use a different symmetry number we print
out the resulting rotational entropy values for sn=1,12 :
 --------------------------------------------------------
|  sn= 1 | S(rot)=       0.01129351 Eh      7.09 kcal/mol|
|  sn= 2 | S(rot)=       0.01063906 Eh      6.68 kcal/mol|
|  sn= 3 | S(rot)=       0.01025623 Eh      6.44 kcal/mol|
|  sn= 4 | S(rot)=       0.00998460 Eh      6.27 kcal/mol|
|  sn= 5 | S(rot)=       0.00977391 Eh      6.13 kcal/mol|
|  sn= 6 | S(rot)=       0.00960177 Eh      6.03 kcal/mol|
|  sn= 7 | S(rot)=       0.00945622 Eh      5.93 kcal/mol|
|  sn= 8 | S(rot)=       0.00933014 Eh      5.85 kcal/mol|
|  sn= 9 | S(rot)=       0.00921894 Eh      5.78 kcal/mol|
|  sn=10 | S(rot)=       0.00911946 Eh      5.72 kcal/mol|
|  sn=11 | S(rot)=       0.00902947 Eh      5.67 kcal/mol|
|  sn=12 | S(rot)=       0.00894731 Eh      5.61 kcal/mol|
 --------------------------------------------------------

-------------------
GIBBS FREE ENERGY
-------------------

The Gibbs free energy is G = H - T*S

Total enthalpy                    ...   -227.58216377 Eh
Total entropy correction          ...     -0.03204615 Eh    -20.11 kcal/mol
-----------------------------------------------------------------------
Final Gibbs free energy         ...   -227.61420992 Eh

For completeness - the Gibbs free energy minus the electronic energy
G-E(el)                           ...      0.03931915 Eh     24.67 kcal/mol

                             ****ORCA TERMINATED NORMALLY****
TOTAL RUN TIME: 0 days 0 hours 1 minutes 49 seconds 670 msec
